# vtk DataFile Version 3.0
Chapter 4 scalar field
ASCII
DATASET STRUCTURED_POINTS
DIMENSIONS 36 36 36
ORIGIN 0.01388889 0.01388889 0.01388889
SPACING 0.02777778 0.02777778 0.02777778
POINT_DATA 46656
SCALARS G float 1
LOOKUP_TABLE default
3.20134195e-03
3.47070931e-03
3.76062305e-03
4.06882167e-03
4.38887719e-03
4.71020909e-03
5.02017420e-03
5.30934148e-03
5.57640893e-03
5.82843786e-03
6.07448258e-03
6.31712610e-03
6.54776068e-03
6.74960343e-03
6.90453965e-03
7.00078951e-03
7.03677302e-03
7.01972889e-03
6.96176942e-03
6.87345024e-03
6.75792620e-03
6.60988595e-03
6.42385008e-03
6.20670803e-03
5.98280691e-03
5.78269409e-03
5.62698673e-03
5.51611139e-03
5.43455360e-03
5.36309555e-03
5.29136648e-03
5.22224186e-03
5.16752899e-03
5.14155952e-03
5.15544368e-03
5.21486625e-03
3.78932361e-03
4.06436343e-03
4.35826322e-03
4.67378320e-03
5.01046749e-03
5.36264246e-03
5.71976788e-03
6.07014773e-03
6.40710536e-03
6.73092436e-03
7.04375654e-03
7.34262448e-03
7.61735486e-03
7.85499346e-03
8.04399792e-03
8.17553978e-03
8.24270956e-03
8.24220572e-03
8.17725807e-03
8.05861969e-03
7.89851975e-03
7.70368706e-03
7.47437822e-03
7.21496157e-03
6.94362167e-03
6.68748375e-03
6.46746950e-03
6.28612516e-03
6.13065064e-03
5.98677853e-03
5.85104851e-03
5.73259871e-03
5.64619899e-03
5.60389506e-03
5.61122736e-03
5.66696841e-03
4.35916288e-03
4.64525772e-03
4.94867377e-03
5.27685415e-03
5.63497003e-03
6.02259533e-03
6.43195538e-03
6.85083633e-03
7.26862438e-03
7.67884124e-03
8.07500165e-03
8.44586547e-03
8.77721515e-03
9.05807223e-03
9.28223412e-03
9.44419578e-03
9.53539554e-03
9.54738446e-03
9.47811455e-03
9.33650974e-03
9.13993455e-03
8.90370645e-03
8.63284804e-03
8.32862686e-03
8.00202880e-03
7.67702702e-03
7.37685803e-03
7.10939150e-03
6.86790049e-03
6.64425921e-03
6.44167699e-03
6.27367478e-03
6.15519937e-03
6.09408598e-03
6.08928874e-03
6.13312004e-03
4.89637954e-03
5.20287547e-03
5.52778086e-03
5.88171883e-03
6.27380749e-03
6.70719333e-03
7.17604207e-03
7.66794803e-03
8.16986989e-03
8.66999011e-03
9.15389229e-03
9.60207824e-03
9.99626052e-03
1.03261676e-02
1.05876327e-02
1.07742473e-02
1.08777387e-02
1.08936150e-02
1.08222608e-02
1.06699737e-02
1.04502058e-02
1.01794191e-02
9.86775476e-03
9.51636489e-03
9.13118105e-03
8.73333868e-03
8.34877510e-03
7.99206365e-03
7.66288443e-03
7.35905487e-03
7.08847493e-03
6.86724298e-03
6.70894934e-03
6.61744829e-03
6.58610510e-03
6.60254899e-03
5.38927643e-03
5.72672905e-03
6.08807011e-03
6.48502028e-03
6.92859804e-03
7.42283277e-03
7.96164107e-03
8.53097346e-03
9.11568571e-03
9.70007665e-03
1.02633694e-02
1.07801734e-02
1.12310713e-02
1.16089750e-02
1.19091747e-02
1.21187922e-02
1.22268805e-02
1.22393491e-02
1.21679241e-02
1.20155057e-02
1.17825400e-02
1.14811622e-02
1.11291148e-02
1.07331797e-02
1.02963438e-02
9.83530097e-03
9.37660970e-03
8.93944129e-03
8.52873735e-03
8.14674702e-03
7.80504709e-03
7.52147799e-03
7.30903726e-03
7.16891233e-03
7.09140580e-03
7.06180604e-03
5.83353080e-03
6.20957464e-03
6.62032748e-03
7.07662012e-03
7.58857792e-03
8.15886632e-03
8.77830945e-03
9.42955259e-03
1.00942235e-02
1.07538458e-02
1.13830622e-02
1.19526349e-02
1.24454470e-02
1.28626954e-02
1.32021047e-02
1.34406220e-02
1.35578336e-02
1.35678528e-02
1.34978099e-02
1.33477049e-02
1.31011344e-02
1.27666127e-02
1.23748770e-02
1.19424872e-02
1.14690270e-02
1.09627452e-02
1.04470141e-02
9.94264055e-03
9.45805758e-03
8.99911858e-03
8.58072564e-03
8.22311267e-03
7.94015918e-03
7.73268472e-03
7.59037817e-03
7.49894138e-03
6.23533921e-03
6.65290328e-03
7.12036202e-03
7.64635811e-03
8.23776703e-03
8.89343955e-03
9.59948450e-03
1.03330817e-02
1.10722044e-02
1.17973359e-02
1.24828350e-02
1.30970413e-02
1.36245899e-02
1.40762618e-02
1.44582698e-02
1.47393020e-02
1.48829995e-02
1.49019379e-02
1.48352971e-02
1.46805784e-02
1.44091714e-02
1.40324757e-02
1.35989599e-02
1.31343072e-02
1.26313521e-02
1.20889647e-02
1.15267672e-02
1.09655811e-02
1.04142586e-02
9.88031179e-03
9.38173197e-03
8.94197542e-03
8.57713539e-03
8.28956254e-03
8.07071105e-03
7.90911820e-03
6.61023799e-03
7.06867082e-03
7.59459566e-03
8.19336902e-03
8.86708405e-03
9.60923079e-03
1.03995828e-02
1.12088788e-02
1.20112607e-02
1.27905412e-02
1.35286544e-02
1.41967498e-02
1.47747835e-02
1.52735179e-02
1.57073904e-02
1.60453711e-02
1.62355546e-02
1.62796099e-02
1.62182320e-02
1.60489902e-02
1.57401580e-02
1.53134027e-02
1.48317330e-02
1.43223768e-02
1.37724048e-02
1.31808845e-02
1.25701390e-02
1.19585358e-02
1.13493390e-02
1.07473060e-02
1.01720840e-02
9.65027791e-03
9.20111686e-03
8.82978551e-03
8.53146892e-03
8.29904154e-03
6.97494345e-03
7.47354375e-03
8.05677753e-03
8.72649997e-03
9.47885774e-03
1.03010852e-02
1.11667141e-02
1.20399799e-02
1.28923375e-02
1.37147773e-02
1.45054646e-02
1.52460579e-02
1.59067474e-02
1.64801758e-02
1.69787742e-02
1.73804332e-02
1.76288206e-02
1.77097097e-02
1.76560413e-02
1.74658243e-02
1.71151087e-02
1.66382194e-02
1.60997454e-02
1.55190732e-02
1.48870917e-02
1.42197758e-02
1.35503383e-02
1.28915012e-02
1.22339455e-02
1.15752360e-02
1.09337680e-02
1.03379562e-02
9.80975945e-03
9.35804844e-03
8.98307748e-03
8.68268684e-03
7.33662769e-03
7.87577778e-03
8.51456169e-03
9.25061759e-03
1.00736711e-02
1.09647252e-02
1.18932351e-02
1.28205456e-02
1.37175899e-02
1.45818451e-02
1.54281761e-02
1.62523631e-02
1.70182511e-02
1.76917780e-02
1.82682127e-02
1.87350456e-02
1.90429743e-02
1.91649329e-02
1.91206671e-02
1.89090408e-02
1.85196642e-02
1.79957114e-02
1.73901860e-02
1.67140290e-02
1.59756895e-02
1.52166132e-02
1.44796986e-02
1.37694553e-02
1.30653903e-02
1.23580024e-02
1.16618304e-02
1.10036097e-02
1.04057044e-02
9.88034159e-03
9.43318382e-03
9.06751864e-03
7.68662896e-03
8.26659240e-03
8.95799603e-03
9.75393876e-03
1.06372153e-02
1.15830796e-02
1.25603732e-02
1.35356104e-02
1.44848218e-02
1.54074077e-02
1.63198803e-02
1.72267221e-02
1.80961303e-02
1.88778825e-02
1.95424519e-02
2.00755484e-02
2.04395875e-02
2.06016209e-02
2.05663592e-02
2.03347523e-02
1.99116133e-02
1.93407126e-02
1.86600331e-02
1.78824551e-02
1.70419868e-02
1.61959268e-02
1.53830322e-02
1.46035273e-02
1.38392970e-02
1.30815450e-02
1.23390947e-02
1.16308043e-02
1.09745143e-02
1.03839869e-02
9.87035595e-03
9.44253337e-03
8.00573733e-03
8.62547755e-03
9.36513022e-03
1.02138389e-02
1.11471843e-02
1.21342624e-02
1.31463194e-02
1.41627565e-02
1.51736736e-02
1.61775630e-02
1.71759315e-02
1.81654543e-02
1.91232916e-02
2.00029220e-02
2.07577609e-02
2.13595610e-02
2.17757933e-02
2.19729878e-02
2.19433606e-02
2.16912236e-02
2.12344527e-02
2.06125639e-02
1.98563468e-02
1.89931057e-02
1.80737395e-02
1.71495900e-02
1.62473172e-02
1.53734852e-02
1.45291165e-02
1.37152337e-02
1.29326070e-02
1.21848322e-02
1.14809461e-02
1.08348634e-02
1.02629559e-02
9.77886934e-03
8.27751495e-03
8.93507060e-03
9.71855596e-03
1.06137544e-02
1.15902470e-02
1.26111908e-02
1.36497561e-02
1.47000132e-02
1.57703906e-02
1.68617610e-02
1.79583747e-02
1.90375671e-02
2.00750828e-02
2.10362598e-02
2.18744520e-02
2.25474816e-02
2.30158139e-02
2.32422650e-02
2.32103728e-02
2.29280945e-02
2.24248860e-02
2.17429493e-02
2.09193397e-02
1.99936815e-02
1.90133434e-02
1.80127267e-02
1.70125905e-02
1.60353184e-02
1.51046645e-02
1.42324278e-02
1.34109976e-02
1.26284957e-02
1.18845347e-02
1.11928713e-02
1.05733052e-02
1.00423116e-02
8.49918928e-03
9.19261295e-03
1.00158909e-02
1.09523088e-02
1.19674252e-02
1.30208209e-02
1.40868928e-02
1.51696019e-02
1.62891522e-02
1.74513571e-02
1.86337307e-02
1.97998788e-02
2.09151879e-02
2.19490789e-02
2.28631292e-02
2.36085523e-02
2.41309050e-02
2.43813191e-02
2.43361052e-02
2.40078177e-02
2.34399214e-02
2.26879828e-02
2.18019914e-02
2.08235011e-02
1.97846238e-02
1.87077709e-02
1.76191293e-02
1.65541302e-02
1.55478837e-02
1.46173490e-02
1.37521401e-02
1.29327588e-02
1.21534541e-02
1.14265010e-02
1.07715763e-02
1.02047734e-02
8.68089683e-03
9.40638874e-03
1.02632754e-02
1.12321060e-02
1.22773666e-02
1.33593818e-02
1.44562311e-02
1.55763524e-02
1.67410467e-02
1.79546475e-02
1.91954672e-02
2.04262100e-02
2.16080770e-02
2.27089673e-02
2.36939080e-02
2.45087370e-02
2.50837486e-02
2.53555477e-02
2.52924450e-02
2.49107461e-02
2.42676437e-02
2.34368239e-02
2.24827975e-02
2.14460120e-02
2.03465596e-02
1.92028992e-02
1.80458874e-02
1.69143453e-02
1.58441104e-02
1.48542188e-02
1.39391804e-02
1.30815506e-02
1.22734159e-02
1.15227671e-02
1.08451080e-02
1.02529917e-02
8.83392338e-03
9.58290882e-03
1.04621369e-02
1.14491209e-02
1.25087444e-02
1.36062987e-02
1.47275021e-02
1.58844106e-02
1.70938242e-02
1.83520690e-02
1.96342394e-02
2.09057163e-02
2.21324787e-02
2.32857652e-02
2.43296325e-02
2.52050050e-02
2.58333422e-02
2.61346772e-02
2.60585006e-02
2.56212112e-02
2.48998702e-02
2.39883866e-02
2.29618177e-02
2.18625031e-02
2.07060575e-02
1.95072088e-02
1.82949789e-02
1.71065908e-02
1.59775726e-02
1.49310380e-02
1.39696747e-02
1.30811352e-02
1.22547643e-02
1.14919804e-02
1.08014084e-02
1.01910587e-02
8.95978697e-03
9.71862115e-03
1.06060952e-02
1.15968790e-02
1.26560712e-02
1.37543427e-02
1.48854097e-02
1.60662979e-02
1.73101686e-02
1.86050963e-02
1.99197140e-02
2.12179106e-02
2.24701539e-02
2.36534066e-02
2.47344580e-02
2.56589297e-02
2.63473708e-02
2.66921837e-02
2.66092550e-02
2.61141807e-02
2.53164358e-02
2.43355427e-02
2.32484732e-02
2.20937282e-02
2.08857730e-02
1.96368247e-02
1.83734354e-02
1.71328783e-02
1.59532726e-02
1.48630887e-02
1.38704814e-02
1.29647627e-02
1.21309450e-02
1.13630965e-02
1.06640002e-02
1.00389291e-02
9.05021094e-03
9.80431307e-03
1.06875980e-02
1.16740260e-02
1.27286036e-02
1.38233444e-02
1.49554722e-02
1.61443707e-02
1.74018368e-02
1.87122412e-02
2.00406946e-02
2.13485807e-02
2.26062723e-02
2.37937607e-02
2.48839408e-02
2.58346461e-02
2.65690908e-02
2.69515011e-02
2.68664919e-02
2.63306778e-02
2.54829787e-02
2.44662873e-02
2.33501829e-02
2.21603662e-02
2.09108945e-02
1.96178891e-02
1.83104202e-02
1.70287937e-02
1.58146936e-02
1.46992151e-02
1.36913434e-02
1.27782188e-02
1.19408183e-02
1.11687165e-02
1.04617411e-02
9.82473418e-03
9.09667742e-03
9.83470678e-03
1.07059777e-02
1.16855279e-02
1.27373021e-02
1.38307866e-02
1.49602033e-02
1.61430892e-02
1.73915327e-02
1.86910052e-02
2.00069994e-02
2.13002264e-02
2.25391854e-02
2.37034354e-02
2.47689541e-02
2.57009827e-02
2.64278464e-02
2.68113837e-02
2.67304294e-02
2.62002777e-02
2.53664125e-02
2.43714303e-02
2.32710596e-02
2.20778305e-02
2.08070893e-02
1.94850862e-02
1.81489289e-02
1.68434400e-02
1.56120956e-02
1.44854411e-02
1.34701598e-02
1.25512946e-02
1.17090140e-02
1.09320730e-02
1.02198375e-02
9.57726408e-03
9.09780804e-03
9.81415994e-03
1.06684491e-02
1.16365822e-02
1.26806796e-02
1.37656573e-02
1.48806088e-02
1.60406325e-02
1.72599107e-02
1.85282789e-02
1.98131725e-02
2.10741796e-02
2.22760886e-02
2.33943500e-02
2.44045295e-02
2.52705570e-02
2.59279981e-02
2.62677558e-02
2.61946283e-02
2.57232971e-02
2.49732025e-02
2.40563378e-02
2.30121128e-02
2.18470469e-02
2.05801036e-02
1.92494784e-02
1.79033596e-02
1.65917166e-02
1.53583940e-02
1.42310169e-02
1.32133961e-02
1.22905970e-02
1.14452168e-02
1.06677646e-02
9.95794404e-03
9.31982044e-03
9.06131417e-03
9.75383166e-03
1.05851740e-02
1.15307821e-02
1.25518125e-02
1.36109553e-02
1.46942493e-02
1.58157311e-02
1.69931334e-02
1.82200819e-02
1.94640942e-02
2.06821486e-02
2.18338873e-02
2.28909701e-02
2.38285679e-02
2.46088598e-02
2.51743011e-02
2.54516266e-02
2.53879018e-02
2.49986537e-02
2.43601017e-02
2.35423651e-02
2.25725975e-02
2.14582793e-02
2.02206336e-02
1.89050119e-02
1.75691228e-02
1.62684899e-02
1.50475306e-02
1.39305880e-02
1.29192490e-02
1.20001975e-02
1.11592356e-02
1.03894845e-02
9.69076902e-03
9.06581525e-03
8.99977237e-03
9.66535602e-03
1.04649346e-02
1.13742705e-02
1.23566296e-02
1.33769438e-02
1.44204665e-02
1.54990815e-02
1.66293755e-02
1.78046133e-02
1.89919993e-02
2.01486293e-02
2.12354213e-02
2.22230591e-02
2.30845995e-02
2.37849075e-02
2.42762938e-02
2.45095231e-02
2.44582761e-02
2.41371933e-02
2.35895589e-02
2.28555240e-02
2.19560545e-02
2.09033303e-02
1.97202358e-02
1.84502136e-02
1.71516612e-02
1.58824418e-02
1.46881156e-02
1.35924965e-02
1.25968615e-02
1.16901780e-02
1.08612478e-02
1.01052755e-02
9.42238141e-03
8.81421566e-03
8.92534852e-03
9.55673121e-03
1.03136990e-02
1.11751473e-02
1.21105816e-02
1.30901486e-02
1.40976133e-02
1.51345655e-02
1.62080731e-02
1.73102580e-02
1.84153430e-02
1.94906592e-02
2.05035582e-02
2.14207452e-02
2.22093407e-02
2.28397958e-02
2.32783202e-02
2.34893262e-02
2.34544314e-02
2.31813155e-02
2.26949938e-02
2.20209733e-02
2.11783871e-02
2.01873071e-02
1.90751664e-02
1.78793706e-02
1.66483987e-02
1.54348994e-02
1.42834438e-02
1.32195139e-02
1.22471973e-02
1.13587473e-02
1.05465073e-02
9.80725698e-03
9.14153270e-03
8.55061971e-03
8.84605013e-03
9.43245180e-03
1.01351449e-02
1.09398123e-02
1.18246656e-02
1.27651365e-02
1.37379207e-02
1.47275664e-02
1.57282297e-02
1.67366322e-02
1.77444424e-02
1.87335517e-02
1.96716730e-02
2.05164738e-02
2.12329887e-02
2.18001250e-02
2.21937560e-02
2.23874040e-02
2.23660935e-02
2.21284982e-02
2.16875691e-02
2.10620351e-02
2.02693269e-02
1.93355456e-02
1.82958804e-02
1.71858761e-02
1.60425082e-02
1.49060693e-02
1.38145490e-02
1.27934720e-02
1.18514253e-02
1.09865302e-02
1.01952292e-02
9.47619602e-03
8.83030891e-03
8.25852901e-03
8.76451191e-03
9.29511338e-03
9.93386004e-03
1.06748343e-02
1.15050133e-02
1.24013070e-02
1.33311581e-02
1.42635414e-02
1.51841100e-02
1.60988327e-02
1.70162842e-02
1.79236773e-02
1.87807493e-02
1.95422918e-02
2.01838892e-02
2.06923243e-02
2.10418794e-02
2.12117694e-02
2.11941190e-02
2.09806059e-02
2.05758810e-02
1.99980233e-02
1.92609672e-02
1.83865912e-02
1.74147096e-02
1.63865797e-02
1.53350364e-02
1.42873339e-02
1.32688563e-02
1.23007754e-02
1.13958670e-02
1.05600674e-02
9.79503430e-03
9.10157803e-03
8.48046131e-03
7.93226063e-03
8.67950357e-03
9.14788805e-03
9.71777178e-03
1.03912391e-02
1.11604845e-02
1.20019214e-02
1.28768645e-02
1.37475943e-02
1.45980697e-02
1.54381273e-02
1.62787288e-02
1.71010941e-02
1.78620648e-02
1.85303260e-02
1.90984234e-02
1.95510667e-02
1.98537502e-02
1.99925415e-02
1.99693125e-02
1.97701529e-02
1.93929859e-02
1.88604686e-02
1.81866810e-02
1.73826683e-02
1.64814778e-02
1.55297341e-02
1.45638622e-02
1.36035290e-02
1.26612727e-02
1.17514031e-02
1.08892173e-02
1.00876903e-02
9.35414899e-03
8.69166292e-03
8.10053013e-03
7.58038927e-03
8.58794898e-03
8.99447035e-03
9.49705765e-03
1.01026520e-02
1.08058341e-02
1.15822135e-02
1.23934923e-02
1.32041732e-02
1.39995608e-02
1.47835966e-02
1.55539289e-02
1.62835214e-02
1.69403590e-02
1.75180137e-02
1.80191882e-02
1.84162874e-02
1.86683573e-02
1.87726747e-02
1.87400840e-02
1.85511652e-02
1.81960948e-02
1.77022517e-02
1.70916803e-02
1.63672566e-02
1.55465277e-02
1.46711655e-02
1.37815075e-02
1.28969019e-02
1.20237097e-02
1.11710075e-02
1.03545487e-02
9.59163159e-03
8.89385492e-03
8.26588925e-03
7.70799490e-03
7.21884379e-03
8.48702248e-03
8.83826055e-03
9.28000361e-03
9.82107222e-03
1.04557201e-02
1.11605087e-02
1.19018983e-02
1.26518011e-02
1.33974841e-02
1.41317360e-02
1.48344375e-02
1.54748280e-02
1.60392728e-02
1.65413786e-02
1.69828236e-02
1.73229109e-02
1.75228957e-02
1.75934769e-02
1.75515227e-02
1.73725877e-02
1.70384888e-02
1.65774077e-02
1.60219762e-02
1.53751923e-02
1.46388607e-02
1.38408383e-02
1.30190952e-02
1.21968184e-02
1.13822762e-02
1.05829313e-02
9.81372129e-03
9.09290090e-03
8.43387377e-03
7.84258451e-03
7.31908530e-03
6.86184224e-03
8.37512035e-03
8.68182071e-03
9.07202344e-03
9.55334585e-03
1.01187667e-02
1.07471822e-02
1.14124762e-02
1.20953182e-02
1.27851740e-02
1.34659922e-02
1.41061898e-02
1.46763632e-02
1.51747577e-02
1.56207103e-02
1.60080548e-02
1.62918568e-02
1.64432116e-02
1.64838508e-02
1.64335184e-02
1.62648894e-02
1.59527268e-02
1.55214351e-02
1.50098056e-02
1.44261010e-02
1.37639809e-02
1.30367745e-02
1.22757871e-02
1.15076415e-02
1.07452404e-02
9.99722816e-03
9.27705690e-03
8.60140566e-03
7.98369758e-03
7.43025541e-03
6.94175065e-03
6.51632342e-03
8.25411640e-03
8.52797460e-03
8.87551252e-03
9.30134859e-03
9.79744550e-03
1.03463298e-02
1.09298825e-02
1.15376450e-02
1.21619692e-02
1.27833076e-02
1.33676995e-02
1.38879633e-02
1.43439230e-02
1.47483554e-02
1.50879743e-02
1.53228352e-02
1.54360840e-02
1.54539673e-02
1.53951189e-02
1.52338939e-02
1.49433352e-02
1.45405531e-02
1.40624261e-02
1.35223996e-02
1.29144918e-02
1.22444434e-02
1.15372390e-02
1.08198505e-02
1.01084728e-02
9.41275433e-03
8.74405075e-03
8.11657682e-03
7.54259434e-03
7.02851824e-03
6.57557696e-03
6.18223706e-03
8.12630355e-03
8.37788731e-03
8.68994649e-03
9.06386320e-03
9.49178077e-03
9.96084325e-03
1.04610678e-02
1.09893167e-02
1.15416478e-02
1.20995902e-02
1.26309106e-02
1.31093254e-02
1.35301156e-02
1.38971256e-02
1.41952410e-02
1.43937944e-02
1.44838765e-02
1.44878374e-02
1.44196590e-02
1.42600695e-02
1.39869470e-02
1.36108408e-02
1.31610017e-02
1.26515720e-02
1.20811667e-02
1.14557305e-02
1.07966783e-02
1.01291565e-02
9.46966652e-03
8.82763974e-03
8.21223296e-03
7.63510447e-03
7.10665714e-03
6.63319649e-03
6.21644733e-03
5.85585274e-03
7.99204782e-03
8.22928268e-03
8.51136632e-03
8.83743633e-03
9.20095388e-03
9.59427841e-03
1.00146234e-02
1.04646767e-02
1.09437071e-02
1.14356987e-02
1.19108139e-02
1.23423925e-02
1.27207479e-02
1.30453454e-02
1.33046815e-02
1.34776561e-02
1.35567468e-02
1.35534443e-02
1.34751722e-02
1.33112390e-02
1.30498838e-02
1.26987314e-02
1.22774187e-02
1.17967390e-02
1.12589337e-02
1.06731895e-02
1.00600887e-02
9.44219530e-03
8.83489475e-03
8.24644323e-03
7.68427784e-03
7.15742959e-03
6.67479448e-03
6.24216674e-03
5.86202089e-03
5.53444540e-03
7.84759410e-03
8.07555951e-03
8.33238382e-03
8.61591287e-03
8.92176572e-03
9.24729090e-03
9.59518924e-03
9.97226313e-03
1.03799356e-02
1.08039938e-02
1.12167047e-02
1.15916403e-02
1.19171608e-02
1.21926088e-02
1.24130342e-02
1.25645744e-02
1.26366829e-02
1.26278158e-02
1.25387590e-02
1.23674432e-02
1.21136717e-02
1.17858099e-02
1.13952281e-02
1.09475954e-02
1.04463827e-02
9.90293268e-03
9.33737494e-03
8.77011940e-03
8.21469259e-03
7.67846126e-03
7.16744689e-03
6.68897899e-03
6.25049276e-03
5.85770654e-03
5.51342499e-03
5.21869073e-03
7.68650230e-03
7.90804811e-03
8.14352278e-03
8.39052070e-03
8.64712056e-03
8.91452096e-03
9.19953920e-03
9.51091386e-03
9.85069014e-03
1.02063054e-02
1.05524790e-02
1.08648483e-02
1.11322561e-02
1.13557950e-02
1.15360618e-02
1.16640124e-02
1.17252413e-02
1.17083183e-02
1.16091259e-02
1.14313774e-02
1.11837592e-02
1.08765997e-02
1.05164405e-02
1.01049375e-02
9.64529160e-03
9.14911740e-03
8.63484107e-03
8.12023785e-03
7.61691760e-03
7.13147223e-03
6.66912133e-03
6.23629009e-03
5.83964307e-03
5.48468670e-03
5.17500145e-03
4.91231401e-03
7.50293303e-03
7.71835493e-03
7.93535076e-03
8.15164484e-03
8.36740155e-03
8.58690031e-03
8.81892815e-03
9.07266047e-03
9.35014989e-03
9.64006875e-03
9.92080756e-03
1.01715419e-02
1.03823598e-02
1.05555486e-02
1.06942281e-02
1.07924398e-02
1.08348839e-02
1.08058956e-02
1.06987190e-02
1.05189066e-02
1.02788769e-02
9.98964999e-03
9.65625513e-03
9.27938521e-03
8.86228587e-03
8.41572322e-03
7.95512181e-03
7.49477977e-03
7.04409322e-03
6.60864962e-03
6.19332492e-03
5.80407400e-03
5.44727268e-03
5.12864534e-03
4.85222181e-03
4.62061632e-03
7.29423296e-03
7.50187133e-03
7.70165678e-03
7.89204612e-03
8.07457697e-03
8.25560838e-03
8.44452996e-03
8.64981022e-03
8.87271389e-03
9.10372566e-03
9.32518858e-03
9.51992068e-03
9.67962295e-03
9.80552286e-03
9.90136620e-03
9.96371917e-03
9.97996889e-03
9.93547495e-03
9.82310995e-03
9.64691583e-03
9.41749662e-03
9.14489198e-03
8.83402396e-03
8.48734472e-03
8.10963195e-03
7.71052577e-03
7.30227819e-03
6.89539174e-03
6.49669487e-03
6.11064536e-03
5.74143510e-03
5.39480941e-03
5.07702446e-03
4.79396386e-03
4.55023814e-03
4.34912322e-03
3.47924954e-03
3.81506002e-03
4.17396799e-03
4.54977155e-03
4.93209856e-03
5.30787837e-03
5.66383591e-03
5.99151291e-03
6.29098341e-03
6.57039974e-03
6.83857221e-03
7.09730154e-03
7.33842654e-03
7.54663208e-03
7.70450523e-03
7.79963564e-03
7.82989524e-03
7.80292600e-03
7.73184979e-03
7.62884365e-03
7.49769434e-03
7.33113522e-03
7.12206447e-03
6.88011851e-03
6.63340883e-03
6.41450472e-03
6.24274695e-03
6.11615973e-03
6.01642299e-03
5.92226721e-03
5.82208764e-03
5.71794342e-03
5.62172104e-03
5.54826763e-03
5.51007828e-03
5.51537843e-03
4.12068330e-03
4.46504587e-03
4.82850941e-03
5.20999031e-03
5.60539542e-03
6.00716425e-03
6.40512025e-03
6.78960327e-03
7.15609035e-03
7.50661315e-03
7.84341153e-03
8.16196017e-03
8.45119637e-03
8.69929884e-03
8.89634248e-03
9.03253537e-03
9.09854285e-03
9.08962265e-03
9.00957175e-03
8.87114462e-03
8.68831202e-03
8.46714247e-03
8.20745621e-03
7.91631453e-03
7.61628523e-03
7.33710872e-03
7.09869247e-03
6.90107886e-03
6.72804890e-03
6.56307070e-03
6.40210509e-03
6.25366671e-03
6.13130024e-03
6.04625558e-03
6.00472745e-03
6.00763597e-03
4.74392250e-03
5.09958761e-03
5.47063816e-03
5.86084370e-03
6.27256045e-03
6.70432253e-03
7.15002744e-03
7.60057382e-03
8.04872345e-03
8.49023461e-03
8.91856477e-03
9.31945350e-03
9.67585575e-03
9.97748692e-03
1.02201374e-02
1.03961248e-02
1.04923844e-02
1.04981055e-02
1.04122050e-02
1.02459528e-02
1.00181177e-02
9.74425767e-03
9.43125784e-03
9.08364728e-03
8.71662609e-03
8.35718773e-03
8.02921969e-03
7.73859303e-03
7.47525739e-03
7.22948648e-03
7.00406777e-03
6.81125047e-03
6.66321255e-03
6.56540319e-03
6.51650596e-03
6.51077554e-03
5.32956468e-03
5.70367323e-03
6.09197281e-03
6.50269818e-03
6.94370968e-03
7.41813006e-03
7.92248454e-03
8.44825245e-03
8.98673292e-03
9.52938572e-03
1.00606969e-02
1.05561055e-02
1.09928008e-02
1.13615831e-02
1.16589731e-02
1.18726091e-02
1.19867865e-02
1.19970581e-02
1.19086187e-02
1.17294714e-02
1.14702247e-02
1.11469673e-02
1.07751442e-02
1.03625916e-02
9.91904177e-03
9.46840644e-03
9.03862622e-03
8.64436757e-03
8.28316808e-03
7.95189850e-03
7.65790511e-03
7.41462782e-03
7.23157777e-03
7.10892631e-03
7.03904312e-03
7.01061636e-03
5.86282974e-03
6.26404863e-03
6.68346602e-03
7.13241240e-03
7.62245199e-03
8.15916900e-03
8.73885769e-03
9.35102161e-03
9.98557638e-03
1.06306328e-02
1.12631414e-02
1.18494928e-02
1.23654613e-02
1.28058391e-02
1.31656406e-02
1.34189026e-02
1.35430051e-02
1.35485120e-02
1.34603288e-02
1.32814888e-02
1.30012026e-02
1.26283960e-02
1.21927997e-02
1.17133046e-02
1.11961588e-02
1.06587438e-02
1.01307519e-02
9.63458419e-03
9.17581283e-03
8.75599403e-03
8.38489924e-03
8.07710458e-03
7.84077775e-03
7.67301535e-03
7.56200682e-03
7.49295391e-03
6.33896980e-03
6.77424017e-03
7.23802252e-03
7.74305547e-03
8.30255263e-03
8.92212708e-03
9.59506631e-03
1.03061348e-02
1.10417185e-02
1.17876055e-02
1.25140846e-02
1.31793646e-02
1.37606263e-02
1.42640397e-02
1.46874525e-02
1.49883181e-02
1.51284626e-02
1.51307406e-02
1.50439963e-02
1.48669481e-02
1.45631218e-02
1.41360834e-02
1.36366338e-02
1.30995074e-02
1.25243105e-02
1.19157396e-02
1.13014271e-02
1.07110124e-02
1.01567116e-02
9.64321662e-03
9.18277539e-03
8.79226252e-03
8.48134328e-03
8.24629795e-03
8.07356462e-03
7.94735365e-03
6.76562544e-03
7.23781204e-03
7.75459269e-03
8.32866970e-03
8.97240266e-03
9.68942977e-03
1.04678497e-02
1.12854242e-02
1.21233948e-02
1.29666636e-02
1.37830153e-02
1.45232314e-02
1.51622919e-02
1.57194640e-02
1.62049197e-02
1.65661331e-02
1.67433936e-02
1.67576894e-02
1.66729689e-02
1.64858140e-02
1.61430575e-02
1.56535879e-02
1.50932763e-02
1.45079391e-02
1.38838766e-02
1.32114850e-02
1.25183873e-02
1.18404301e-02
1.11930910e-02
1.05821211e-02
1.00222956e-02
9.53494757e-03
9.13307350e-03
8.81420448e-03
8.56540538e-03
8.37192405e-03
7.16028316e-03
7.66942231e-03
8.24278593e-03
8.89207795e-03
9.62680019e-03
1.04465662e-02
1.13332011e-02
1.22554172e-02
1.31881805e-02
1.41190402e-02
1.50235640e-02
1.58516373e-02
1.65682714e-02
1.71908196e-02
1.77424345e-02
1.81751568e-02
1.84124373e-02
1.84590127e-02
1.83774494e-02
1.81647614e-02
1.77681278e-02
1.72118936e-02
1.65895522e-02
1.59441046e-02
1.52498670e-02
1.44974096e-02
1.37234591e-02
1.29653942e-02
1.22325867e-02
1.15272366e-02
1.08669102e-02
1.02785211e-02
9.77919810e-03
9.36952420e-03
9.03893076e-03
8.77567846e-03
7.54100550e-03
8.08798242e-03
8.71980563e-03
9.44610219e-03
1.02719488e-02
1.11922193e-02
1.21820616e-02
1.32007217e-02
1.42152412e-02
1.52185643e-02
1.62067320e-02
1.71423405e-02
1.79747678e-02
1.86951365e-02
1.93231925e-02
1.98280085e-02
2.01337393e-02
2.02250443e-02
2.01488752e-02
1.99040752e-02
1.94537267e-02
1.88379362e-02
1.81468632e-02
1.74076390e-02
1.65985934e-02
1.57371964e-02
1.48772784e-02
1.40485913e-02
1.32423639e-02
1.24525167e-02
1.16989864e-02
1.10140415e-02
1.04195569e-02
9.91934352e-03
9.50684212e-03
9.17415414e-03
7.91535433e-03
8.50347523e-03
9.19600949e-03
9.99915227e-03
1.09120281e-02
1.19245481e-02
1.30081121e-02
1.41155990e-02
1.52067970e-02
1.62775200e-02
1.73450429e-02
1.83938313e-02
1.93638317e-02
2.02077106e-02
2.09222063e-02
2.14926526e-02
2.18609106e-02
2.19975431e-02
2.19297577e-02
2.16583833e-02
2.11663302e-02
2.05026530e-02
1.97348576e-02
1.88742206e-02
1.79243777e-02
1.69415418e-02
1.59938131e-02
1.50954602e-02
1.42192645e-02
1.33519573e-02
1.25149302e-02
1.17432512e-02
1.10605191e-02
1.04731414e-02
9.97940730e-03
9.57611389e-03
8.27505440e-03
8.90749600e-03
9.66160558e-03
1.05390325e-02
1.15313772e-02
1.26224449e-02
1.37843788e-02
1.49741555e-02
1.61517337e-02
1.73085891e-02
1.84631851e-02
1.96137633e-02
2.07064785e-02
2.16718949e-02
2.24762522e-02
2.31070202e-02
2.35269591e-02
2.37034000e-02
2.36462280e-02
2.33577117e-02
2.28384435e-02
2.21343953e-02
2.12876983e-02
2.03082971e-02
1.92347635e-02
1.81456655e-02
1.71038732e-02
1.61137488e-02
1.51497908e-02
1.42029366e-02
1.32928584e-02
1.24483388e-02
1.16879102e-02
1.10190231e-02
1.04457177e-02
9.97083262e-03
8.60146992e-03
9.27854795e-03
1.00915972e-02
1.10382140e-02
1.21011715e-02
1.32560199e-02
1.44770276e-02
1.57366954e-02
1.70097183e-02
1.82809681e-02
1.95447709e-02
2.07884535e-02
2.19719876e-02
2.30328683e-02
2.39183474e-02
2.46036183e-02
2.50643380e-02
2.52718050e-02
2.52246652e-02
2.49270163e-02
2.43907422e-02
2.36522723e-02
2.27374602e-02
2.16717366e-02
2.05147546e-02
1.93369910e-02
1.81820597e-02
1.70637239e-02
1.59863606e-02
1.49572780e-02
1.39868725e-02
1.30851194e-02
1.22593641e-02
1.15178805e-02
1.08713051e-02
1.03288218e-02
8.87846481e-03
9.59818624e-03
1.04656704e-02
1.14757642e-02
1.26035903e-02
1.38146086e-02
1.50819067e-02
1.63957402e-02
1.77549459e-02
1.91446245e-02
2.05294173e-02
2.18685158e-02
2.31229868e-02
2.42479574e-02
2.51947790e-02
2.59282626e-02
2.64245607e-02
2.66562849e-02
2.66127400e-02
2.63005551e-02
2.57428959e-02
2.49725003e-02
2.40125172e-02
2.28997767e-02
2.16882005e-02
2.04241723e-02
1.91426892e-02
1.78822596e-02
1.66859180e-02
1.55784413e-02
1.45567767e-02
1.36072990e-02
1.27260284e-02
1.19229592e-02
1.12148579e-02
1.06149381e-02
9.10380296e-03
9.86403786e-03
1.07811978e-02
1.18491966e-02
1.30383670e-02
1.43061038e-02
1.56209832e-02
1.69827994e-02
1.84080191e-02
1.98872350e-02
2.13710815e-02
2.27971915e-02
2.41140462e-02
2.52843108e-02
2.62776017e-02
2.70647034e-02
2.76113302e-02
2.78731007e-02
2.78211627e-02
2.74682622e-02
2.68616378e-02
2.60486864e-02
2.50586625e-02
2.39176415e-02
2.26548389e-02
2.13034675e-02
1.99079104e-02
1.85300913e-02
1.72342267e-02
1.60545930e-02
1.49794761e-02
1.39817391e-02
1.30512090e-02
1.21990889e-02
1.14443498e-02
1.08000068e-02
9.28990263e-03
1.00869481e-02
1.10469703e-02
1.21618891e-02
1.34012625e-02
1.47204883e-02
1.60871558e-02
1.75027084e-02
1.89847555e-02
2.05223933e-02
2.20647082e-02
2.35461984e-02
2.49091703e-02
2.61192918e-02
2.71673296e-02
2.80399341e-02
2.86821164e-02
2.90027522e-02
2.89371386e-02
2.85027642e-02
2.77903527e-02
2.68938132e-02
2.58564260e-02
2.46783700e-02
2.33606454e-02
2.19338238e-02
2.04558354e-02
1.89974122e-02
1.76243559e-02
1.63729526e-02
1.52360154e-02
1.41874878e-02
1.32156592e-02
1.23291817e-02
1.15430420e-02
1.08662751e-02
9.45041887e-03
1.02760429e-02
1.12658422e-02
1.24082509e-02
1.36734135e-02
1.50222313e-02
1.64294410e-02
1.78982913e-02
1.94374863e-02
2.10238900e-02
2.26028208e-02
2.41110362e-02
2.54973266e-02
2.67440174e-02
2.78702602e-02
2.88766418e-02
2.96724308e-02
3.00932284e-02
3.00171468e-02
2.94633787e-02
2.85819657e-02
2.75415033e-02
2.64155492e-02
2.51826923e-02
2.38149129e-02
2.23333072e-02
2.07973868e-02
1.92765575e-02
1.78343356e-02
1.65115129e-02
1.53135015e-02
1.42218582e-02
1.32224448e-02
1.23166163e-02
1.15113929e-02
1.08105550e-02
9.58607811e-03
1.04260053e-02
1.14287771e-02
1.25786411e-02
1.38460360e-02
1.51988119e-02
1.66226979e-02
1.81265343e-02
1.97116248e-02
2.13408358e-02
2.29505561e-02
2.44757608e-02
2.58737821e-02
2.71517038e-02
2.83647981e-02
2.95260604e-02
3.04993521e-02
3.10350116e-02
3.09533253e-02
3.02750766e-02
2.92074457e-02
2.79980451e-02
2.67608315e-02
2.54638661e-02
2.40509436e-02
2.25244313e-02
2.09368542e-02
1.93571523e-02
1.78525373e-02
1.64719410e-02
1.52307265e-02
1.41136907e-02
1.31015051e-02
1.21860048e-02
1.13672307e-02
1.06465891e-02
9.68468376e-03
1.05218347e-02
1.15224496e-02
1.26693789e-02
1.39321992e-02
1.52811222e-02
1.67067740e-02
1.82221234e-02
1.98257528e-02
2.14739423e-02
2.30971705e-02
2.46285740e-02
2.60289554e-02
2.73225456e-02
2.85911970e-02
2.98600327e-02
3.09576299e-02
3.15725803e-02
3.14919166e-02
3.07371691e-02
2.95480452e-02
2.82237008e-02
2.69038565e-02
2.55508143e-02
2.40941755e-02
2.25246772e-02
2.08904035e-02
1.92634761e-02
1.77168325e-02
1.63046047e-02
1.50436126e-02
1.39160138e-02
1.28966589e-02
1.19722430e-02
1.11405309e-02
1.04034208e-02
9.73350648e-03
1.05536338e-02
1.15418881e-02
1.26830153e-02
1.39454268e-02
1.52948145e-02
1.67172588e-02
1.82237402e-02
1.98146179e-02
2.14488916e-02
2.30590254e-02
2.45771278e-02
2.59627644e-02
2.72397324e-02
2.84933187e-02
2.97556333e-02
3.08585912e-02
3.14850435e-02
3.14147547e-02
3.06663048e-02
2.94840448e-02
2.81663146e-02
2.68390104e-02
2.54604220e-02
2.39702314e-02
2.23670844e-02
2.07027756e-02
1.90526024e-02
1.74911544e-02
1.60708893e-02
1.48038454e-02
1.36690680e-02
1.26406737e-02
1.17059145e-02
1.08641060e-02
1.01184202e-02
9.73094255e-03
1.05258506e-02
1.14943990e-02
1.26233827e-02